LAMMPS (22 Jul 2025 - Development - patch_22Jul2025-28-geac4a44fc3)
OMP_NUM_THREADS environment is not set. Defaulting to 1 thread.
  using 1 OpenMP thread(s) per MPI task
units real
atom_style full
boundary p p p

pair_style lj/cut/coul/cut 12.0

read_data lammps/s1.data
Reading data file ...
  triclinic box = (0 0 0) to (17.918025 17.918025 17.918025) with tilt (1.0971626e-15 1.0971626e-15 1.0971626e-15)
  1 by 1 by 1 MPI processor grid
  reading atoms ...
  12 atoms
  reading velocities ...
  12 velocities
Finding 1-2 1-3 1-4 neighbors ...
  special bond factors lj:    0        0        0       
  special bond factors coul:  0        0        0       
     0 = max # of 1-2 neighbors
     0 = max # of 1-3 neighbors
     0 = max # of 1-4 neighbors
     1 = max # of special neighbors
  special bonds CPU = 0.000 seconds
  read_data CPU = 0.001 seconds

neighbor 2.0 bin
neigh_modify delay 5 every 1

velocity all create 300.0 12 dist gaussian
group all type 1 2
12 atoms in group all
thermo 100
thermo_style custom step temp etotal press

dump xyz all xyz 100 out.xyz

fix 1 all nvt temp 300.0 300.0 100.0

timestep 0.1
run 10000
Generated 1 of 1 mixed pair_coeff terms from geometric mixing rule
Neighbor list info ...
  update: every = 1 steps, delay = 5 steps, check = yes
  max neighbors/atom: 2000, page size: 100000
  master list distance cutoff = 14
  ghost atom cutoff = 14
  binsize = 7, bins = 3 3 3
  1 neighbor lists, perpetual/occasional/extra = 1 0 0
  (1) pair lj/cut/coul/cut, perpetual
      attributes: half, newton on
      pair build: half/bin/newton/tri
      stencil: half/bin/3d/tri
      bin: standard
Per MPI rank memory allocation (min/avg/max) = 6.001 | 6.001 | 6.001 Mbytes
   Step          Temp          TotEng         Press     
         0   300            195062.67      9337925.5    
       100   19843.956      541.87068      4796.0318    
       200   1559.956      -48.001486      20.538962    
       300   256.38619     -85.337793     -304.86717    
       400   60.876718     -91.235242     -356.28686    
       500   27.206139     -92.685748     -367.38666    
       600   27.17824      -93.524699     -370.72521    
       700   35.669549     -94.422501     -372.24639    
       800   46.883265     -101.37091     -396.19043    
       900   59.072152     -102.65157     -395.51527    
      1000   71.437997     -104.11673     -392.27193    
      1100   83.170699     -105.73984     -384.13923    
      1200   92.700617     -107.47673     -367.35997    
      1300   97.50543      -109.25199     -337.21511    
      1400   95.362566     -110.95647     -292.20466    
      1500   88.770946     -115.42333     -254.0377     
      1600   83.41391      -113.84334     -207.15141    
      1700   80.851694     -118.00022     -209.06079    
      1800   83.130352     -122.08722     -240.87966    
      1900   90.04144      -123.24846     -284.80729    
      2000   96.107863     -124.43903     -330.91452    
      2100   100.21991     -125.63056     -364.58882    
      2200   105.15884     -126.81309     -383.80116    
      2300   112.70994     -130.93924     -402.7774     
      2400   123.05373     -132.16832     -401.03112    
      2500   135.8976      -139.3224      -415.82651    
      2600   151.1015      -140.68612     -402.20256    
      2700   166.99299     -142.13526     -384.08979    
      2800   179.2679      -146.58977     -367.62896    
      2900   175.13658     -153.96803     -335.2365     
      3000   147.0304      -155.28218     -246.51149    
      3100   140.39857     -156.35664     -213.86991    
      3200   170.25856     -157.49317     -278.43212    
      3300   183.79379     -155.81393     -329.74902    
      3400   187.02742     -157.06074     -371.60178    
      3500   194.52988     -161.22171     -416.00667    
      3600   209.04643     -156.60164     -413.75722    
      3700   228.67079     -160.84234     -428.57639    
      3800   249.18624     -162.23129     -405.60498    
      3900   257.58805     -163.67999     -339.48255    
      4000   242.15997     -165.0774      -226.11436    
      4100   249.36959     -169.3169      -174.85312    
      4200   298.09351     -159.0328      -167.28033    
      4300   334.94316     -160.71486     -209.79745    
      4400   348.14083     -168.42479     -230.84576    
      4500   291.47381     -170.20279     -99.204006    
      4600   244.45643     -177.43896      4.0178093    
      4700   313.85366     -176.00068     -57.464789    
      4800   253.59913     -171.68735      80.665675    
      4900   161.11619     -172.72293      242.11801    
      5000   180.10311     -170.58749      199.75524    
      5100   201.38555     -171.46819      109.86313    
      5200   219.73209     -175.32476      31.88363     
      5300   212.10158     -182.10001      4.3232539    
      5400   204.94784     -182.92415      1.6809882    
      5500   214.84382     -183.70897     -49.387934    
      5600   231.76659     -184.50967     -134.44341    
      5700   225.17959     -182.36746     -173.04462    
      5800   195.77563     -194.78619     -215.93586    
      5900   199.17644     -189.50331     -210.3506     
      6000   221.35884     -184.23027     -199.71259    
      6100   200.5932      -178.93039     -85.176479    
      6200   111.84757     -182.24915      118.22231    
      6300   127.30373     -182.44608      162.54924    
      6400   243.06361     -191.56231     -3.3133847    
      6500   206.07208     -183.11473      123.09407    
      6600   134.17781     -195.05754      195.91102    
      6700   191.34224     -198.13603      55.051796    
      6800   230.47512     -198.28738     -84.85023     
      6900   195.3002      -195.46924     -103.87656    
      7000   154.3195      -195.52209     -123.78502    
      7100   135.61421     -195.52069     -175.78277    
      7200   123.48071     -195.47312     -221.5763     
      7300   122.59451     -195.38105     -251.01354    
      7400   132.56574     -198.1691      -267.79836    
      7500   140.40038     -195.0284      -222.82316    
      7600   141.97134     -197.69988     -176.51948    
      7700   161.24369     -191.50398     -128.62326    
      7800   206.23458     -191.04786     -156.74688    
      7900   260.52494     -190.41859     -201.17274    
      8000   319.55987     -189.61117     -232.73358    
      8100   339.28777     -176.95346     -129.24948    
      8200   264.44604     -164.39747      116.98459    
      8300   300.5359      -163.68054      112.67933    
      8400   437.21455     -174.40215     -104.18675    
      8500   455.7097      -170.35755     -64.506112    
      8600   387.63857     -181.19897      58.997546    
      8700   399.98301     -180.47835      88.484802    
      8800   533.74394     -179.71285     -74.967074    
      8900   602.45394     -187.85051     -169.64172    
      9000   600.74506     -178.74152     -85.057072    
      9100   592.33013     -155.35911      52.501562    
      9200   573.3291      -149.95102      114.69793    
      9300   469.73667     -153.60726      264.00522    
      9400   353.20953     -154.29448      437.40954    
      9500   372.53836     -154.97292      374.44402    
      9600   360.98471     -152.79213      331.32003    
      9700   333.96968     -153.52844      292.2969     
      9800   396.39109     -154.34684      132.16014    
      9900   395.90318     -155.33545      75.519894    
     10000   345.16669     -150.44757      129.32844    
Loop time of 0.0169643 on 1 procs for 10000 steps with 12 atoms

Performance: 5093.063 ns/day, 0.005 hours/ns, 589474.925 timesteps/s, 7.074 Matom-step/s
94.9% CPU use with 1 MPI tasks x 1 OpenMP threads

MPI task timing breakdown:
Section |  min time  |  avg time  |  max time  |%varavg| %total
---------------------------------------------------------------
Pair    | 0.0057814  | 0.0057814  | 0.0057814  |   0.0 | 34.08
Bond    | 0.00026762 | 0.00026762 | 0.00026762 |   0.0 |  1.58
Neigh   | 0.00019138 | 0.00019138 | 0.00019138 |   0.0 |  1.13
Comm    | 0.0042547  | 0.0042547  | 0.0042547  |   0.0 | 25.08
Output  | 0.00137    | 0.00137    | 0.00137    |   0.0 |  8.08
Modify  | 0.0035972  | 0.0035972  | 0.0035972  |   0.0 | 21.20
Other   |            | 0.001502   |            |       |  8.85

Nlocal:             12 ave          12 max          12 min
Histogram: 1 0 0 0 0 0 0 0 0 0
Nghost:            176 ave         176 max         176 min
Histogram: 1 0 0 0 0 0 0 0 0 0
Neighs:            117 ave         117 max         117 min
Histogram: 1 0 0 0 0 0 0 0 0 0

Total # of neighbors = 117
Ave neighs/atom = 9.75
Ave special neighs/atom = 0
Neighbor list builds = 10
Dangerous builds = 0
Total wall time: 0:00:00
