12
 Atoms. Timestep: 0
2 0.696198 7.97111 4.01607
1 0.00667181 8.88933 4.05646
2 17.2352 9.80755 4.09685
2 3.55336 15.2339 14.8713
1 4.0646 15.1843 13.8435
2 4.57585 15.1347 12.8157
2 3.18102 2.92891 8.72137
1 4.24067 2.6884 9.09487
2 5.30032 2.44788 9.46837
2 17.75 2.94196 9.42541
1 0.247789 3.78888 8.76963
2 0.663583 4.6358 8.11386
12
 Atoms. Timestep: 100
2 2.46389 5.61381 3.93184
1 17.9073 8.86614 4.06162
2 15.4691 12.1517 4.1815
2 2.25281 15.3575 17.513
1 4.05874 15.2064 13.8314
2 5.88442 15.0001 10.1912
2 1.10792 3.29208 7.39626
1 4.23632 2.66939 9.10028
2 8.01237 1.84462 10.4211
2 16.6928 0.786471 11.0997
1 -0.586683 4.12255 9.26748
2 1.71876 6.82034 6.42212
12
 Atoms. Timestep: 200
2 2.67114 5.33652 3.91461
1 17.9104 8.86085 4.067
2 15.2643 12.4233 4.19114
2 2.10257 15.3714 17.8178
1 4.05817 15.2079 13.8305
2 6.03466 14.9851 9.88776
2 1.01673 3.27329 7.15585
1 4.23999 2.6644 9.09344
2 8.3264 1.77533 10.5326
2 16.5718 0.538409 11.295
1 17.0298 4.23653 9.44525
2 1.8361 7.08428 6.23041
12
 Atoms. Timestep: 300
2 2.74365 5.23816 3.9028
1 17.9195 8.85522 4.07545
2 15.1952 12.5145 4.19393
2 2.05257 15.3756 17.9185
1 4.05811 15.2071 13.8308
2 6.0833 14.9809 9.78663
2 0.982715 3.26801 7.08614
1 4.24558 2.65925 9.08065
2 8.43165 1.75309 10.5719
2 16.533 0.457265 11.3623
1 16.9255 4.26632 9.49692
2 1.86877 7.18662 6.16724
12
 Atoms. Timestep: 400
2 2.77737 5.19175 3.89251
1 17.9335 8.84823 4.08693
2 15.1656 12.5523 4.1946
2 2.0321 15.3767 17.9589
1 4.0582 15.2053 13.8318
2 6.10166 14.98 9.74498
2 0.964789 3.26702 7.06902
1 4.25264 2.65316 9.06306
2 8.47566 1.74499 10.5905
2 16.519 0.425586 11.3925
1 16.8778 4.26932 9.51034
2 1.87459 7.24465 6.14014
12
 Atoms. Timestep: 500
2 2.79525 5.16671 3.88272
1 17.9519 8.83971 4.10135
2 15.1524 12.5677 4.19431
2 2.02412 15.3764 17.9738
1 4.05833 15.2028 13.8331
2 6.10693 14.9807 9.72845
2 0.953078 3.26811 7.07584
1 4.26093 2.64605 9.04139
2 8.49396 1.74304 10.6008
2 16.5157 0.415066 11.4075
1 16.8534 4.25946 9.5067
2 1.86764 7.28626 6.12699
12
 Atoms. Timestep: 600
2 2.80538 5.15217 3.87308
1 17.9742 8.82958 4.11869
2 15.1474 12.5717 4.19349
2 2.02259 15.3753 17.9753
1 4.05846 15.1998 13.8348
2 6.10527 14.9823 9.72479
2 0.94405 3.27052 7.09637
1 4.27027 2.63794 9.01617
2 8.49915 1.74437 10.6071
2 16.5181 0.415635 11.4149
1 16.8404 4.24174 9.49348
2 1.85295 7.32123 6.11993
12
 Atoms. Timestep: 700
2 2.81124 5.14346 3.86347
1 18.0003 8.81775 4.13896
2 15.1472 12.569 4.19233
2 2.02491 15.3736 17.9689
1 4.05854 15.1965 13.8367
2 6.09933 14.9846 9.72872
2 0.936136 3.27393 7.12611
1 4.28051 2.62888 8.98784
2 8.49671 1.74773 10.6112
2 16.5241 0.422918 11.418
1 16.8341 4.21832 9.47393
2 1.83278 7.35368 6.11547
12
 Atoms. Timestep: 800
2 2.81451 5.13831 3.85389
1 18.03 8.80417 4.16224
2 15.1499 12.5621 4.19094
2 2.02972 15.3717 17.9574
1 4.05856 15.193 13.839
2 6.09047 14.9873 9.73761
2 0.928519 3.27824 7.16285
1 4.29151 2.61892 8.9568
2 8.48931 1.75248 10.6141
2 16.5325 0.434765 11.4183
1 16.8322 4.19005 9.44933
2 1.80826 7.38557 6.11179
12
 Atoms. Timestep: 900
2 2.81604 5.13552 3.84438
1 18.0633 8.78879 4.18853
2 15.1546 12.5522 4.18937
2 2.03618 15.3699 17.9426
1 4.05849 15.1892 13.8415
2 6.07938 14.9905 9.75005
2 0.920701 3.28339 7.20535
1 4.30316 2.6081 8.92342
2 8.47841 1.75826 10.616
2 16.5428 0.450024 11.4167
1 16.834 4.15697 9.4198
2 1.78005 7.41789 6.10787
12
 Atoms. Timestep: 1000
2 2.81634 5.13441 3.835
1 18.0998 8.77166 4.21774
2 15.1609 12.5401 4.18767
2 2.04396 15.3684 17.9254
1 4.05831 15.1853 13.8442
2 6.06649 14.9941 9.76525
2 0.912334 3.28936 7.25292
1 4.31534 2.59647 8.88803
2 8.46481 1.76486 10.6173
2 16.5546 0.468039 11.4136
1 16.839 4.11951 9.38599
2 1.74867 7.45106 6.10316
12
 Atoms. Timestep: 1100
2 2.81565 5.13461 3.82586
1 18.1391 8.75309 4.24943
2 15.1683 12.5264 4.18587
2 2.05288 15.3668 17.9059
1 4.05799 15.1814 13.8473
2 6.05205 14.998 9.78272
2 0.903157 3.29614 7.30503
1 4.32799 2.58407 8.85098
2 8.44902 1.77214 10.618
2 16.5676 0.488417 11.4092
1 16.847 4.07798 9.34843
2 1.71472 7.48509 6.09754
12
 Atoms. Timestep: 1200
2 2.81415 5.13588 3.81703
1 18.18 8.73383 4.28246
2 15.1767 12.5113 4.18399
2 2.06283 15.3654 17.8845
1 4.05751 15.1775 13.8506
2 6.03621 15.0022 9.80215
2 0.893012 3.30367 7.36125
1 4.34103 2.57093 8.81263
2 8.43134 1.77999 10.6182
2 16.5817 0.510916 11.4036
1 16.8579 4.03263 9.30761
2 1.67914 7.51949 6.09156
12
 Atoms. Timestep: 1300
2 2.81191 5.13806 3.80864
1 18.2206 8.71555 4.3143
2 15.1859 12.4951 4.18204
2 2.07377 15.3639 17.8612
1 4.05684 15.1737 13.8542
2 6.01908 15.0067 9.82335
2 0.881949 3.31183 7.42097
1 4.35445 2.55709 8.77332
2 8.41195 1.78835 10.618
2 16.5968 0.53538 11.3968
1 16.8714 3.98376 9.26418
2 1.64359 7.55305 6.08685
12
 Atoms. Timestep: 1400
2 2.80902 5.14113 3.8008
1 18.2572 8.70123 4.34038
2 15.1958 12.4779 4.18005
2 2.08568 15.3625 17.8362
1 4.05596 15.1701 13.8581
2 6.00071 15.0115 9.84614
2 0.870465 3.32035 7.48314
1 4.36823 2.54258 8.73341
2 8.391 1.79714 10.6171
2 16.6128 0.56171 11.3888
1 16.8867 3.93183 9.21937
2 1.6108 7.58351 6.08667
12
 Atoms. Timestep: 1500
2 2.8056 5.14536 3.79377
1 18.2854 8.69474 4.35454
2 15.2064 12.4599 4.17801
2 2.09858 15.3608 17.8098
1 4.05485 15.1666 13.8623
2 5.98101 15.0161 9.87026
2 0.859985 3.3288 7.54562
1 4.38239 2.52746 8.69323
2 8.36855 1.80634 10.6158
2 16.6297 0.589848 11.3794
1 16.9019 3.87767 9.17548
2 1.58413 7.60798 6.09556
12
 Atoms. Timestep: 1600
2 2.80167 5.15063 3.78755
1 18.3025 8.69861 4.35258
2 15.2177 12.4411 4.1759
2 2.11248 15.3588 17.782
1 4.05348 15.1635 13.8668
2 5.9599 15.021 9.89558
2 0.853666 3.33612 7.60534
1 4.39693 2.51181 8.65308
2 8.34464 1.81588 10.6138
2 16.6475 0.619773 11.3686
1 16.9125 3.82265 9.13658
2 1.56575 7.62428 6.11675
12
 Atoms. Timestep: 1700
2 2.79734 5.15694 3.78233
1 18.3103 8.71137 4.33679
2 15.2297 12.4215 4.17369
2 2.12738 15.3567 17.7527
1 4.05184 15.1606 13.8717
2 5.93736 15.0263 9.92208
2 0.856557 3.34089 7.6581
1 4.41184 2.49575 8.61319
2 8.3193 1.82575 10.6112
2 16.6658 0.651379 11.356
1 16.9121 3.76847 9.10837
2 1.55432 7.63347 6.1487
12
 Atoms. Timestep: 1800
2 2.79265 5.1642 3.77809
1 18.314 8.72845 4.31483
2 15.2425 12.401 4.17133
2 2.14327 15.3546 17.722
1 4.04994 15.1581 13.877
2 5.91341 15.032 9.94984
2 0.873307 3.34213 7.70058
1 4.42699 2.47945 8.57374
2 8.29254 1.83592 10.6078
2 16.6848 0.684712 11.3412
1 16.8945 3.71612 9.09548
2 1.54589 7.63883 6.18562
12
 Atoms. Timestep: 1900
2 2.78739 5.17193 3.77459
1 18.3182 8.74546 4.29434
2 15.2562 12.3801 4.16889
2 2.16017 15.3528 17.6899
1 4.04778 15.156 13.8827
2 5.88818 15.0379 9.97903
2 0.903763 3.34013 7.73354
1 4.44213 2.46311 8.53479
2 8.26446 1.84624 10.6036
2 16.7042 0.719991 11.3242
1 16.8603 3.66474 9.09725
2 1.53672 7.64397 6.22179
12
 Atoms. Timestep: 2000
2 2.78155 5.18006 3.77161
1 18.3257 8.75982 4.28
2 15.2707 12.3589 4.1665
2 2.17811 15.351 17.6561
1 4.04535 15.1544 13.8887
2 5.86178 15.0437 10.0098
2 0.942353 3.3361 7.76158
1 4.45691 2.44694 8.4964
2 8.23529 1.85648 10.5983
2 16.7239 0.757511 11.3048
1 16.8174 3.6121 9.10795
2 1.52465 7.65127 6.25377
12
 Atoms. Timestep: 2100
2 2.77517 5.18863 3.76898
1 18.3372 8.77055 4.2737
2 15.2861 12.3374 4.16412
2 2.19711 15.3493 17.6206
1 4.04267 15.1533 13.8951
2 5.83418 15.0494 10.0423
2 0.982511 3.3311 7.7896
1 4.47093 2.43113 8.4586
2 8.20499 1.86669 10.5919
2 16.7438 0.79762 11.2828
1 16.7751 3.55607 9.12161
2 1.50903 7.66155 6.2803
12
 Atoms. Timestep: 2200
2 2.76829 5.1977 3.76658
1 18.3526 8.7777 4.27544
2 15.3024 12.3153 4.16169
2 2.21724 15.3476 17.5831
1 4.03973 15.1528 13.9019
2 5.80533 15.0551 10.0765
2 1.01992 3.32554 7.82054
1 4.48386 2.41587 8.42148
2 8.17351 1.87688 10.5844
2 16.7637 0.840692 11.2579
1 16.7397 3.49541 9.13482
2 1.49003 7.67483 6.30144
12
 Atoms. Timestep: 2300
2 2.76092 5.20732 3.76435
1 18.371 8.78191 4.28404
2 15.3196 12.2926 4.15921
2 2.23853 15.3459 17.5434
1 4.03651 15.1529 13.9092
2 5.77516 15.061 10.1124
2 1.05267 3.3194 7.85554
1 4.49543 2.40128 8.38516
2 8.14083 1.88706 10.5758
2 16.7834 0.887119 11.2298
1 16.7143 3.42949 9.14658
2 1.46832 7.69053 6.31815
12
 Atoms. Timestep: 2400
2 2.75307 5.21754 3.76229
1 18.3912 8.78425 4.29748
2 15.3378 12.2692 4.15665
2 2.26108 15.344 17.5014
1 4.03299 15.1537 13.9169
2 5.74347 15.0673 10.1502
2 1.08037 3.31242 7.89469
1 4.50548 2.38747 8.34983
2 8.10688 1.89725 10.5659
2 16.8027 0.937297 11.198
1 16.6997 3.35798 9.15731
2 1.44496 7.70749 6.33205
12
 Atoms. Timestep: 2500
2 2.74475 5.22838 3.7604
1 0.493771 8.78606 4.31311
2 15.357 12.2451 4.15402
2 2.28495 15.3422 17.4569
1 4.02915 15.1551 13.9253
2 5.71024 15.074 10.1898
2 1.10341 3.30431 7.93753
1 4.51394 2.37452 8.31571
2 8.07159 1.90744 10.5548
2 16.8215 0.991597 11.1621
1 16.6957 3.28074 9.16813
2 1.42101 7.72469 6.3451
12
 Atoms. Timestep: 2600
2 2.73597 5.23989 3.75873
1 0.513907 8.78822 4.32849
2 15.3773 12.2203 4.15132
2 2.31023 15.3402 17.4097
1 4.02495 15.1573 13.9343
2 5.67544 15.0811 10.2313
2 1.12255 3.29478 7.98341
1 4.52079 2.36249 8.28307
2 8.03439 1.9181 10.542
2 16.8396 1.05028 11.1217
1 16.7015 3.19779 9.18038
2 1.39755 7.74103 6.35951
12
 Atoms. Timestep: 2700
2 2.72672 5.25209 3.7573
1 0.532521 8.79189 4.34101
2 15.3986 12.1948 4.14856
2 2.33702 15.3381 17.3595
1 4.02036 15.1601 13.9441
2 5.63906 15.0886 10.2751
2 1.13874 3.28355 8.03153
1 4.52609 2.35145 8.25218
2 7.99507 1.92935 10.5272
2 16.8569 1.11327 11.0765
1 16.7159 3.1096 9.19517
2 1.37553 7.75551 6.3773
12
 Atoms. Timestep: 2800
2 2.717 5.26497 3.75609
1 0.548794 8.7979 4.349
2 15.4211 12.1685 4.14572
2 2.36542 15.3359 17.3061
1 4.01531 15.1637 13.955
2 5.60107 15.0964 10.321
2 1.15304 3.2704 8.08111
1 4.52993 2.34149 8.22334
2 7.95365 1.94108 10.5105
2 16.8734 1.17946 11.0273
1 16.7375 3.01802 9.21239
2 1.35544 7.76756 6.39964
12
 Atoms. Timestep: 2900
2 2.70668 5.27839 3.7547
1 0.562721 8.80612 4.3527
2 15.4447 12.1414 4.14285
2 2.39552 15.3336 17.2492
1 4.00975 15.1679 13.967
2 5.5617 15.1045 10.3693
2 1.1666 3.25517 8.13132
1 4.5324 2.3327 8.19683
2 7.91012 1.95322 10.4919
2 16.8894 1.24488 10.9783
1 16.7644 2.92867 9.22807
2 1.33716 7.77733 6.4263
12
 Atoms. Timestep: 3000
2 2.69575 5.29237 3.75313
1 0.574936 8.81556 4.35408
2 15.4691 12.1137 4.14017
2 2.42747 15.3312 17.1886
1 4.00359 15.1729 13.9804
2 5.52165 15.1128 10.4198
2 1.18071 3.2378 8.18129
1 4.53365 2.32514 8.17295
2 7.86447 1.96569 10.4713
2 16.9051 1.29912 10.9399
1 16.7937 2.85542 9.22901
2 1.32012 7.7856 6.45577
12
 Atoms. Timestep: 3100
2 2.68422 5.30697 3.75143
1 0.586293 8.82496 4.35581
2 15.4945 12.0852 4.13764
2 2.46142 15.3287 17.1239
1 3.99665 15.1786 13.9954
2 5.48081 15.1214 10.4728
2 1.19709 3.21844 8.22999
1 4.53383 2.31887 8.15202
2 7.8166 1.97845 10.4487
2 16.9217 1.32727 10.9289
1 16.8219 2.81792 9.19395
2 1.30354 7.79335 6.48604
12
 Atoms. Timestep: 3200
2 2.67202 5.32224 3.74969
1 0.597501 8.83331 4.36025
2 15.5209 12.0558 4.1352
2 2.49764 15.326 17.0546
1 3.98865 15.1851 14.0125
2 5.43903 15.1303 10.5284
2 1.21854 3.19763 8.27594
1 4.53313 2.31379 8.13443
2 7.76638 1.9915 10.4238
2 16.939 1.32777 10.9486
1 16.8454 2.81763 9.12036
2 1.28675 7.80141 6.51538
12
 Atoms. Timestep: 3300
2 2.65912 5.3383 3.74815
1 0.608962 8.84006 4.36881
2 15.5486 12.0255 4.1328
2 2.53638 15.3232 16.9802
1 3.9792 15.1925 14.0319
2 5.3962 15.1393 10.5869
2 1.24907 3.17616 8.31736
1 4.53176 2.30979 8.12069
2 7.71368 2.00486 10.3967
2 16.9562 1.31627 10.9812
1 16.8604 2.83266 9.03362
2 1.26932 7.8102 6.54266
12
 Atoms. Timestep: 3400
2 2.64555 5.35534 3.74728
1 0.620757 8.84513 4.38195
2 15.5777 11.9942 4.1304
2 2.57794 15.3202 16.9002
1 3.96783 15.2008 14.0542
2 5.35226 15.1485 10.6485
2 1.2917 3.15459 8.35325
1 4.52985 2.3067 8.11135
2 7.65835 2.01855 10.367
2 16.9723 1.30573 11.0106
1 16.8643 2.84491 8.95599
2 1.25105 7.81981 6.56748
12
 Atoms. Timestep: 3500
2 2.63118 5.37342 3.74713
1 0.632714 8.84882 4.39922
2 15.6084 11.9617 4.12798
2 2.62265 15.317 16.8143
1 3.95409 15.2102 14.0798
2 5.3071 15.1579 10.713
2 1.34554 3.13274 8.38402
1 4.52739 2.30446 8.10693
2 7.60025 2.03261 10.3345
2 16.9869 1.30139 11.03
1 16.859 2.84764 8.89581
2 1.23196 7.83001 6.59008
12
 Atoms. Timestep: 3600
2 2.61591 5.39261 3.74773
1 0.64448 8.85165 4.41951
2 15.6406 11.928 4.12553
2 2.67089 15.3136 16.7222
1 3.9376 15.2207 14.1091
2 5.26062 15.1673 10.7804
2 1.40626 3.11001 8.41084
1 4.52424 2.30307 8.10795
2 7.5392 2.04705 10.2992
2 16.9999 1.30456 11.0373
1 16.8513 2.84003 8.85403
2 1.21223 7.84042 6.61121
12
 Atoms. Timestep: 3700
2 2.59968 5.41298 3.74908
1 0.655598 8.8543 4.44123
2 15.6745 11.893 4.12306
2 2.72297 15.3096 16.6228
1 3.91826 15.2323 14.1421
2 5.21281 15.1767 10.851
2 1.46898 3.08575 8.43468
1 4.52023 2.30257 8.1149
2 7.47522 2.06192 10.2607
2 17.0113 1.31505 11.0327
1 16.8475 2.82357 8.83022
2 1.19211 7.85049 6.63195
12
 Atoms. Timestep: 3800
2 2.58241 5.43461 3.75118
1 0.665594 8.85745 4.4627
2 15.7103 11.8568 4.12058
2 2.77835 15.305 16.5171
1 3.89676 15.2448 14.1774
2 5.16367 15.1862 10.9248
2 1.53023 3.05955 8.45609
1 4.51526 2.30302 8.1282
2 7.40841 2.07726 10.2189
2 17.021 1.33219 11.017
1 16.8525 2.79973 8.82265
2 1.1719 7.85972 6.65349
12
 Atoms. Timestep: 3900
2 2.56406 5.45759 3.75402
1 0.674074 8.8616 4.48257
2 15.7479 11.8192 4.1181
2 2.83465 15.3002 16.41
1 3.87621 15.2579 14.2083
2 5.11323 15.1956 11.002
2 1.58863 3.03126 8.47527
1 4.5094 2.30446 8.14824
2 7.33844 2.09305 10.1735
2 17.029 1.35483 10.9918
1 16.8685 2.77018 8.82885
2 1.1518 7.86767 6.67674
12
 Atoms. Timestep: 4000
2 2.54463 5.48199 3.75759
1 0.680793 8.86691 4.50019
2 15.7874 11.7802 4.11565
2 2.88528 15.2955 16.315
1 3.86532 15.2712 14.2164
2 5.06151 15.2051 11.0829
2 1.64384 3.00085 8.49234
1 4.50292 2.30688 8.17528
2 7.2649 2.10929 10.1243
2 17.0356 1.38117 10.9597
1 16.896 2.73739 8.84501
2 1.13194 7.87422 6.70211
12
 Atoms. Timestep: 4100
2 2.52408 5.50791 3.76184
1 0.685679 8.87315 4.51581
2 15.829 11.7397 4.11326
2 2.9201 15.2911 16.2541
1 3.87773 15.2841 14.1724
2 5.0084 15.2146 11.1679
2 1.69608 2.96836 8.50747
1 4.49643 2.31026 8.20952
2 7.18729 2.12595 10.0713
2 17.041 1.40815 10.9254
1 16.9343 2.70548 8.86457
2 1.11228 7.8795 6.72936
12
 Atoms. Timestep: 4200
2 2.5023 5.53536 3.76646
1 0.688556 8.87944 4.52974
2 15.8728 11.6977 4.11097
2 2.93742 15.2869 16.2311
1 3.91627 15.2971 14.0704
2 4.95365 15.2242 11.258
2 1.74578 2.93392 8.52089
1 4.49085 2.31455 8.25101
2 7.10496 2.14296 10.014
2 17.0458 1.43105 10.8971
1 16.9822 2.68088 8.87704
2 1.09269 7.88391 6.75771
12
 Atoms. Timestep: 4300
2 2.47921 5.56438 3.77121
1 0.688877 8.88397 4.54141
2 15.9189 11.654 4.10884
2 2.94752 15.2828 16.2239
1 3.96823 15.3113 13.9406
2 4.89702 15.234 11.3541
2 1.79327 2.89782 8.53283
1 4.48757 2.31968 8.29962
2 7.01725 2.16019 9.95248
2 17.0505 1.44475 10.8834
1 17.0383 2.67046 8.8709
2 1.07303 7.88794 6.78612
12
 Atoms. Timestep: 4400
2 2.45481 5.59506 3.77611
1 0.686709 8.88624 4.55216
2 15.9672 11.6086 4.10694
2 2.95903 15.279 16.2134
1 4.02118 15.3264 13.8106
2 4.83922 15.244 11.4551
2 1.83865 2.86053 8.54347
1 4.48836 2.32544 8.35494
2 6.92364 2.17748 9.8867
2 17.0547 1.44786 10.8869
1 17.1016 2.67596 8.84274
2 1.0532 7.89206 6.81343
12
 Atoms. Timestep: 4500
2 2.42908 5.62748 3.78123
1 0.682113 8.88603 4.5631
2 16.0183 11.5615 4.10601
2 2.97527 15.2755 16.1921
1 4.06352 15.3419 13.7079
2 4.78531 15.2539 11.547
2 1.88185 2.82274 8.5529
1 4.49497 2.33153 8.41615
2 6.82409 2.19464 9.81703
2 17.0583 1.44447 10.9008
1 17.1708 2.69167 8.80147
2 1.03314 7.8966 6.83874
12
 Atoms. Timestep: 4600
2 2.40197 5.66172 3.78662
1 0.675083 8.88335 4.57487
2 16.0723 11.5127 4.10639
2 2.9968 15.2725 16.1587
1 4.07487 15.3596 13.6917
2 4.74981 15.2618 11.5866
2 1.92287 2.7852 8.56118
1 4.50736 2.33764 8.48117
2 6.72006 2.21145 9.74479
2 17.0616 1.44028 10.9159
1 17.2435 2.70972 8.75975
2 1.01281 7.90167 6.86152
12
 Atoms. Timestep: 4700
2 2.37337 5.69792 3.79236
1 0.66555 8.87848 4.58759
2 16.1299 11.4612 4.10836
2 3.02299 15.2703 16.1149
1 4.04771 15.3809 13.7877
2 4.73897 15.2667 11.5529
2 1.96201 2.7486 8.56836
1 4.51837 2.34446 8.54397
2 6.61794 2.22758 9.67396
2 17.0652 1.43921 10.9257
1 17.3167 2.72468 8.72628
2 0.992206 7.90721 6.88163
12
 Atoms. Timestep: 4800
2 2.34318 5.73619 3.79851
1 0.653406 8.87189 4.60099
2 16.1912 11.4067 4.11184
2 3.05052 15.2687 16.0688
1 4.00786 15.4031 13.9203
2 4.73683 15.2708 11.4949
2 1.99948 2.71364 8.57453
1 4.50578 2.35259 8.59092
2 6.53625 2.24214 9.61462
2 17.0696 1.4431 10.9271
1 17.387 2.73387 8.70511
2 0.971282 7.91271 6.899
12
 Atoms. Timestep: 4900
2 2.31132 5.77659 3.80516
1 0.638491 8.86425 4.6144
2 16.2558 11.3485 4.11605
2 3.06774 15.2664 16.0468
1 3.98487 15.4265 14.0118
2 4.73323 15.2759 11.4452
2 2.03353 2.68116 8.57966
1 4.44185 2.36234 8.60578
2 6.50018 2.25398 9.57901
2 17.0752 1.45251 10.9194
1 17.4505 2.73647 8.6973
2 0.950095 7.91781 6.91404
12
 Atoms. Timestep: 5000
2 2.2776 5.81927 3.81244
1 0.620559 8.85637 4.62693
2 16.3241 11.2863 4.12091
2 3.06009 15.2605 16.081
1 4.00094 15.4545 14.0099
2 4.72599 15.2824 11.4109
2 2.05432 2.65274 8.58359
1 4.34826 2.37087 8.59256
2 6.50606 2.26352 9.56422
2 17.0823 1.46716 10.9032
1 17.5032 2.7329 8.70214
2 0.928695 7.92215 6.92748
12
 Atoms. Timestep: 5100
2 2.24187 5.8644 3.8205
1 0.599308 8.84915 4.63765
2 16.3963 11.2198 4.12631
2 3.03619 15.2521 16.152
1 4.04438 15.4854 13.9408
2 4.71519 15.2905 11.3915
2 2.04009 2.6311 8.5862
1 4.29354 2.37228 8.56809
2 6.528 2.27221 9.55757
2 17.0909 1.48583 10.88
1 17.5403 2.72462 8.71773
2 0.907123 7.92541 6.94001
12
 Atoms. Timestep: 5200
2 2.20396 5.91218 3.82944
1 0.574441 8.84336 4.64588
2 16.473 11.1486 4.13239
2 3.01279 15.2445 16.2229
1 4.09183 15.5148 13.8571
2 4.70158 15.3002 11.3846
2 1.98703 2.61678 8.58752
1 4.31178 2.36443 8.54048
2 6.5514 2.28078 9.55235
2 17.1008 1.50679 10.8529
1 17.5525 2.71439 8.74073
2 0.885415 7.92745 6.95212
12
 Atoms. Timestep: 5300
2 2.16382 5.9628 3.83926
1 0.545754 8.83956 4.65135
2 16.5545 11.0721 4.13958
2 2.99648 15.2391 16.2788
1 4.1324 15.5405 13.7844
2 4.68653 15.3113 11.3852
2 1.93166 2.60611 8.58673
1 4.37221 2.35145 8.51082
2 6.57395 2.28925 9.54751
2 17.1107 1.52706 10.827
1 17.5264 2.70682 8.76555
2 0.863627 7.92852 6.96418
12
 Atoms. Timestep: 5400
2 2.12135 6.0165 3.84989
1 0.513322 8.83793 4.65435
2 16.6415 10.9902 4.14871
2 2.98847 15.2361 16.3167
1 4.1615 15.5625 13.7354
2 4.67193 15.3232 11.3858
2 1.90344 2.59601 8.58274
1 4.43717 2.33734 8.47779
2 6.59856 2.29749 9.54433
2 17.1189 1.54211 10.8102
1 17.4586 2.70817 8.7827
2 0.841713 7.92904 6.97619
12
 Atoms. Timestep: 5500
2 2.07638 6.07352 3.86123
1 0.477907 8.83792 4.65567
2 16.7337 10.9027 4.15976
2 2.98851 15.2355 16.3373
1 4.17726 15.5818 13.7193
2 4.65942 15.3351 11.379
2 1.90107 2.58572 8.57587
1 4.48778 2.32374 8.43977
2 6.62847 2.30542 9.54435
2 17.1242 1.54758 10.8101
1 17.3672 2.72361 8.78122
2 0.819462 7.9293 6.98766
12
 Atoms. Timestep: 5600
2 2.0287 6.13408 3.87319
1 0.442009 8.837 4.65664
2 16.8298 10.811 4.17231
2 2.99618 15.2373 16.3416
1 4.17986 15.5988 13.7372
2 4.64936 15.3468 11.3629
2 1.91169 2.57558 8.56715
1 4.51916 2.31105 8.39716
2 6.66371 2.3131 9.54754
2 17.127 1.54331 10.8269
1 17.2734 2.75231 8.75918
2 0.796594 7.92958 6.99805
12
 Atoms. Timestep: 5700
2 1.97806 6.19837 3.88571
1 0.412302 8.82733 4.6597
2 16.925 10.7206 4.18491
2 3.01109 15.2415 16.3305
1 4.17131 15.613 13.7808
2 4.64066 15.3587 11.3428
2 1.92613 2.56608 8.55709
1 4.53487 2.29922 8.353
2 6.70068 2.32063 9.55192
2 17.1285 1.53412 10.8522
1 17.1893 2.78707 8.72676
2 0.772798 7.93009 7.00698
12
 Atoms. Timestep: 5800
2 1.92415 6.26663 3.89881
1 0.402574 8.79155 4.66936
2 17.0096 10.6448 4.19414
2 3.03289 15.248 16.3048
1 4.15392 15.6231 13.8383
2 4.63196 15.3712 11.3264
2 1.93995 2.55762 8.54566
1 4.54135 2.28811 8.31136
2 6.73464 2.32807 9.55474
2 17.1295 1.52552 10.8768
1 17.12 2.82005 8.6962
2 0.747764 7.93105 7.01457
12
 Atoms. Timestep: 5900
2 1.86656 6.33927 3.91265
1 0.427362 8.71179 4.69021
2 17.0734 10.5981 4.19601
2 3.06094 15.2569 16.2661
1 4.12916 15.6277 13.8985
2 4.62221 15.3847 11.3192
2 1.95131 2.55049 8.53266
1 4.54422 2.27755 8.27557
2 6.76194 2.33542 9.55372
2 17.1297 1.52095 10.8947
1 17.0675 2.8464 8.67529
2 0.721598 7.93167 7.02258
12
 Atoms. Timestep: 6000
2 1.80501 6.41637 3.92737
1 0.482606 8.59403 4.71526
2 17.1188 10.5773 4.19039
2 3.09378 15.2675 16.2176
1 4.10019 15.6273 13.9542
2 4.61087 15.3996 11.324
2 1.95956 2.54485 8.51786
1 4.54707 2.26734 8.24779
2 6.78054 2.34268 9.54745
2 17.1291 1.52202 10.9036
1 17.032 2.86386 8.66759
2 0.694824 7.93017 7.03551
12
 Atoms. Timestep: 6100
2 1.74107 6.49485 3.94206
1 0.549857 8.46704 4.73037
2 17.1571 10.5657 4.18128
2 3.12803 15.2791 16.1673
1 4.07221 15.6241 13.994
2 4.59777 15.4162 11.342
2 1.96457 2.54083 8.50115
1 4.55174 2.25729 8.2291
2 6.78959 2.34984 9.53524
2 17.1273 1.52915 10.9026
1 17.0134 2.87179 8.67409
2 0.66795 7.92416 7.06005
12
 Atoms. Timestep: 6200
2 1.68466 6.55855 3.95094
1 0.605496 8.36975 4.73424
2 17.1962 10.5515 4.17171
2 3.15777 15.2896 16.1292
1 4.05351 15.6202 13.9989
2 4.58278 15.4345 11.3729
2 1.96653 2.53842 8.48253
1 4.55859 2.24727 8.21976
2 6.78917 2.35691 9.51698
2 17.1245 1.54206 10.8924
1 17.0109 2.87065 8.69402
2 0.640929 7.91258 7.10039
12
 Atoms. Timestep: 6300
2 1.65958 6.56729 3.93673
1 0.614915 8.35989 4.75255
2 17.2385 10.5306 4.16273
2 3.17827 15.2972 16.1149
1 4.05035 15.6181 13.9547
2 4.56593 15.4547 11.4155
2 1.96576 2.53751 8.46214
1 4.5667 2.23728 8.21919
2 6.78006 2.36386 9.49304
2 17.1206 1.55965 10.8749
1 17.0237 2.86204 8.72477
2 0.61334 7.89617 7.15393
12
 Atoms. Timestep: 6400
2 1.66805 6.51656 3.89658
1 0.576162 8.44054 4.79724
2 17.2839 10.5044 4.15459
2 3.19168 15.3028 16.12
1 4.05865 15.6169 13.8719
2 4.54786 15.4764 11.466
2 1.96271 2.53786 8.44031
1 4.57387 2.22745 8.22581
2 6.76379 2.3707 9.46426
2 17.116 1.57969 10.8537
1 17.0511 2.84924 8.76096
2 0.584932 7.87601 7.21501
12
 Atoms. Timestep: 6500
2 1.68544 6.4489 3.84989
1 0.528738 8.54233 4.85259
2 17.3279 10.4816 4.14557
2 3.2039 15.3084 16.1301
1 4.067 15.6145 13.786
2 4.53094 15.4986 11.5114
2 1.95777 2.53916 8.41759
1 4.57645 2.21801 8.23702
2 6.74291 2.37744 9.43219
2 17.1109 1.59816 10.8355
1 17.0924 2.8379 8.79316
2 0.555643 7.85325 7.27857
12
 Atoms. Timestep: 6600
2 1.6996 6.38581 3.80698
1 0.50249 8.60847 4.91721
2 17.3598 10.481 4.12889
2 3.21852 15.3152 16.1356
1 4.06388 15.612 13.7481
2 4.52056 15.52 11.5249
2 1.95131 2.54111 8.39462
1 4.56969 2.20902 8.24942
2 6.72091 2.38423 9.3989
2 17.1054 1.60996 10.8287
1 17.147 2.83511 8.80956
2 0.52548 7.82938 7.34041
12
 Atoms. Timestep: 6700
2 1.70822 6.33165 3.77021
1 0.509971 8.61687 4.99588
2 17.373 10.5148 4.09871
2 3.23642 15.3233 16.1341
1 4.04323 15.6085 13.7852
2 4.51994 15.5402 11.491
2 1.94366 2.54355 8.37185
1 4.54907 2.20015 8.25977
2 6.70143 2.39134 9.36636
2 17.0993 1.61226 10.838
1 17.2144 2.84491 8.80348
2 0.494364 7.80514 7.39879
12
 Atoms. Timestep: 6800
2 1.71128 6.28639 3.73952
1 0.54049 8.58609 5.07958
2 17.3758 10.5691 4.06018
2 3.25613 15.3322 16.1298
1 4.01269 15.6039 13.8631
2 4.52456 15.5602 11.4321
2 1.93532 2.54649 8.34945
1 4.51284 2.19071 8.26622
2 6.68661 2.39909 9.33561
2 17.0924 1.60747 10.8596
1 17.2933 2.8644 8.77999
2 0.462309 7.78025 7.45434
12
 Atoms. Timestep: 6900
2 1.70905 6.24981 3.71553
1 0.579439 8.54263 5.15309
2 17.3789 10.625 4.02221
2 3.2735 15.3406 16.1353
1 3.98482 15.5993 13.9317
2 4.52912 15.5808 11.3733
2 1.92765 2.54996 8.32719
1 4.46412 2.17996 8.26904
2 6.67578 2.40761 9.30623
2 17.0852 1.60085 10.8848
1 17.3786 2.88703 8.75108
2 0.429409 7.75374 7.50905
12
 Atoms. Timestep: 7000
2 1.70187 6.22177 3.69933
1 0.61983 8.49975 5.20704
2 17.3871 10.6737 3.98964
2 3.2836 15.3466 16.1664
1 3.9691 15.5969 13.9564
2 4.53135 15.6022 11.3248
2 1.92381 2.55369 8.30427
1 4.41054 2.16722 8.26994
2 6.66599 2.41677 9.27674
2 17.0788 1.59667 10.9059
1 17.4612 2.90801 8.72765
2 0.395718 7.7247 7.56455
12
 Atoms. Timestep: 7100
2 1.69001 6.20215 3.69163
1 0.659194 8.46139 5.23908
2 17.4022 10.7125 3.96416
2 3.28661 15.3502 16.2235
1 3.96617 15.597 13.9328
2 4.53057 15.6244 11.2891
2 1.92899 2.55702 8.27924
1 4.36213 2.15171 8.2707
2 6.65382 2.42634 9.24556
2 17.0743 1.59737 10.9187
1 17.5272 2.92612 8.71726
2 0.361354 7.69285 7.62056
12
 Atoms. Timestep: 7200
2 1.67359 6.19091 3.6929
1 0.69635 8.42743 5.2515
2 17.4245 10.7408 3.94621
2 3.28772 15.3533 16.2907
1 3.96929 15.5973 13.8823
2 4.5266 15.6476 11.2665
2 1.94661 2.55937 8.25039
1 4.32965 2.13215 8.27231
2 6.63692 2.4361 9.21166
2 17.0724 1.60403 10.9213
1 17.5632 2.94235 8.72457
2 0.326669 7.65855 7.67469
12
 Atoms. Timestep: 7300
2 1.65268 6.18818 3.70354
1 0.730296 8.3964 5.24829
2 17.4541 10.7585 3.93581
2 3.29128 15.3576 16.3534
1 3.9726 15.5956 13.8251
2 4.51949 15.6717 11.2562
2 1.97198 2.56152 8.21707
1 4.32263 2.10674 8.27479
2 6.61477 2.446 9.17482
2 17.0736 1.61692 10.9135
1 17.5661 2.95746 8.75078
2 0.292194 7.62245 7.72378
12
 Atoms. Timestep: 7400
2 1.6273 6.19422 3.72381
1 0.760059 8.36685 5.23303
2 17.4913 10.7657 3.93294
2 3.29924 15.3636 16.4046
1 3.97321 15.5913 13.7727
2 4.50945 15.697 11.2569
2 1.99422 2.56541 8.18016
1 4.3441 2.07354 8.27692
2 6.58964 2.45631 9.13587
2 17.0779 1.63552 10.8961
1 17.5444 2.97138 8.793
2 0.258458 7.58505 7.76521
12
 Atoms. Timestep: 7500
2 1.59752 6.20917 3.75377
1 0.784671 8.33801 5.20831
2 17.5363 10.7622 3.93755
2 3.31218 15.3712 16.4412
1 3.96969 15.584 13.732
2 4.49691 15.7235 11.2662
2 2.00631 2.57226 8.14142
1 4.38347 2.03107 8.27533
2 6.56793 2.46811 9.09713
2 17.0845 1.65806 10.8723
1 17.5105 2.98522 8.8446
2 0.225955 7.54688 7.7976
12
 Atoms. Timestep: 7600
2 1.5636 6.23258 3.79292
1 0.803 8.31041 5.17626
2 17.5892 10.7478 3.94953
2 3.33024 15.3804 16.4619
1 3.96097 15.5736 13.7091
2 4.4825 15.7515 11.2809
2 2.00815 2.58182 8.10275
1 4.41835 1.97779 8.26435
2 6.56035 2.48332 9.06252
2 17.0921 1.6805 10.8483
1 17.4747 3.00361 8.89469
2 0.19491 7.50802 7.82016
12
 Atoms. Timestep: 7700
2 1.52619 6.26247 3.83947
1 0.813345 8.28708 5.13969
2 17.6504 10.7223 3.96886
2 3.35347 15.3911 16.4663
1 3.94627 15.5598 13.7088
2 4.46685 15.7814 11.2978
2 2.00204 2.59323 8.06571
1 4.43033 1.91232 8.23964
2 6.57471 2.50404 9.03473
2 17.0989 1.6966 10.8341
1 17.4446 3.03498 8.92887
2 0.165343 7.46826 7.83251
12
 Atoms. Timestep: 7800
2 1.48686 6.29422 3.89044
1 0.812757 8.27573 5.1036
2 17.7201 10.6848 3.99569
2 3.38191 15.4032 16.4537
1 3.92551 15.5416 13.7332
2 4.45015 15.8135 11.3156
2 1.98969 2.60571 8.03131
1 4.41989 1.83633 8.20292
2 6.60687 2.52981 9.01195
2 17.104 1.70148 10.8366
1 17.4246 3.08632 8.93687
2 0.137127 7.42726 7.83461
12
 Atoms. Timestep: 7900
2 1.44868 6.31843 3.94008
1 0.796848 8.28959 5.07591
2 17.7989 10.6349 4.03014
2 3.41553 15.4166 16.4238
1 3.89922 15.5194 13.7811
2 4.43203 15.8478 11.3353
2 1.97223 2.61862 8.00009
1 4.39973 1.75464 8.15989
2 6.64514 2.55756 8.98956
2 17.108 1.69691 10.8528
1 17.4153 3.15591 8.92185
2 0.110023 7.38458 7.82654
12
 Atoms. Timestep: 8000
2 1.41441 6.32604 3.98348
1 0.762436 8.33978 5.06376
2 17.8864 10.5728 4.07195
2 3.45399 15.431 16.3773
1 3.86881 15.4941 13.8475
2 4.4117 15.884 11.3601
2 1.95084 2.6313 7.97228
1 4.38034 1.67238 8.11544
2 6.67986 2.584 8.96375
2 17.1125 1.6896 10.8733
1 17.4156 3.23558 8.89562
2 0.0837052 7.33988 7.80846
12
 Atoms. Timestep: 8100
2 1.38357 6.3177 4.02148
1 0.712787 8.41669 5.07021
2 17.9807 10.5041 4.11881
2 3.49628 15.4461 16.3193
1 3.83707 15.4681 13.9199
2 4.38832 15.9215 11.3933
2 1.92701 2.64295 7.94804
1 4.36637 1.59369 8.07244
2 6.70576 2.60678 8.93239
2 17.1189 1.68566 10.8903
1 17.4246 3.31793 8.86825
2 0.0577831 7.29304 7.78061
12
 Atoms. Timestep: 8200
2 1.35319 6.30204 4.05886
1 0.660578 8.4762 5.10373
2 18.0748 10.4511 4.1607
2 3.53997 15.4614 16.2656
1 3.80849 15.4441 13.9722
2 4.36134 15.9594 11.4373
2 1.90238 2.65273 7.92744
1 4.35902 1.52228 8.0326
2 6.7203 2.62435 8.89441
2 17.1277 1.68885 10.8994
1 17.4417 3.39874 8.84512
2 0.0318321 7.24416 7.74333
12
 Atoms. Timestep: 8300
2 1.3209 6.28585 4.09907
1 0.620186 8.45381 5.18432
2 18.1598 10.4527 4.17897
2 3.58208 15.4773 16.2437
1 3.78744 15.4225 13.9669
2 4.33052 15.9975 11.4928
2 1.87854 2.65985 7.91042
1 4.35872 1.46301 7.99743
2 6.72229 2.63568 8.84926
2 17.1393 1.7012 10.8983
1 17.4669 3.47611 8.82854
2 0.00548214 7.19338 7.69685
12
 Atoms. Timestep: 8400
2 1.28607 6.27024 4.14294
1 0.587279 8.35444 5.30813
2 18.2397 10.5033 4.17573
2 3.62258 15.4944 16.2624
1 3.77338 15.4024 13.8952
2 4.29627 16.0357 11.5577
2 1.85694 2.6638 7.89681
1 4.36502 1.41815 7.96741
2 6.71103 2.63996 8.79657
2 17.1539 1.72396 10.8862
1 17.4994 3.54924 8.81942
2 -0.0214536 7.14059 7.64132
12
 Atoms. Timestep: 8500
2 1.24953 6.2523 4.18921
1 0.551857 8.23434 5.44705
2 18.3219 10.5655 4.16985
2 3.66381 15.512 16.2989
1 3.75958 15.3798 13.8025
2 4.26081 16.0761 11.622
2 1.83907 2.66425 7.88639
1 4.37743 1.38933 7.94269
2 6.6861 2.63664 8.73648
2 17.1718 1.75789 10.8626
1 17.538 3.61745 8.8182
2 -0.0493883 7.08464 7.57904
12
 Atoms. Timestep: 8600
2 1.21269 6.22803 4.23545
1 0.514531 8.13022 5.5765
2 18.4079 10.6226 4.17045
2 3.70679 15.5292 16.3326
1 3.73721 15.3458 13.7479
2 4.22972 16.126 11.6618
2 1.8264 2.66107 7.87891
1 4.39498 1.37681 7.92297
2 6.64755 2.62549 8.66964
2 17.1929 1.80349 10.8274
1 17.5813 3.67998 8.82502
2 -0.0812269 7.01954 7.52176
12
 Atoms. Timestep: 8700
2 1.17656 6.195 4.27976
1 0.48776 8.07476 5.65674
2 0.578967 10.6711 4.17967
2 3.75143 15.5453 16.3558
1 3.70074 15.2916 13.765
2 4.20735 16.1925 11.6596
2 1.82027 2.65428 7.87412
1 4.4153 1.37836 7.90728
2 6.59612 2.60672 8.59665
2 17.2175 1.86107 10.7807
1 17.6276 3.73636 8.83956
2 17.7921 6.92825 7.49956
12
 Atoms. Timestep: 8800
2 1.14133 6.15314 4.32177
1 0.480841 8.08469 5.66391
2 0.670311 10.7109 4.19782
2 3.79724 15.5596 16.3671
1 3.65596 15.2254 13.8334
2 4.18994 16.2699 11.6319
2 1.82175 2.64403 7.87181
1 4.43429 1.39189 7.89453
2 6.53449 2.58169 8.51864
2 17.2453 1.93062 10.7232
1 17.6756 3.78699 8.86058
2 17.7284 6.79845 7.53078
12
 Atoms. Timestep: 8900
2 1.10659 6.10449 4.3624
1 0.484422 8.13704 5.63091